444913
 OpenBabel03092011273D

126132  0  0  1  0  0  0  0  0999 V2000
    1.0981    0.1169    0.0873 O   0  0  0  0  0  0  0  0  0  0  0  0
    1.9539   -0.7170   -5.2428 O   0  0  0  0  0  0  0  0  0  0  0  0
    4.7206    2.7704    3.5716 O   0  0  0  0  0  0  0  0  0  0  0  0
    6.3774    0.3110   -1.1700 O   0  0  0  0  0  0  0  0  0  0  0  0
    9.1301   -1.5724    1.7773 O   0  0  0  0  0  0  0  0  0  0  0  0
    4.3870   -1.8024    1.1204 O   0  0  0  0  0  0  0  0  0  0  0  0
    2.5226   -0.0449    2.2397 O   0  0  0  0  0  0  0  0  0  0  0  0
    2.1574   -2.7403   -3.1862 O   0  0  0  0  0  0  0  0  0  0  0  0
    6.0278    0.5774    3.9928 O   0  0  0  0  0  0  0  0  0  0  0  0
    4.8851    1.4420   -3.3289 O   0  0  0  0  0  0  0  0  0  0  0  0
    7.2671   -2.9946    2.4345 O   0  0  0  0  0  0  0  0  0  0  0  0
    5.8007   -0.2844    1.8912 O   0  0  0  0  0  0  0  0  0  0  0  0
    2.0332    1.7062   -2.2675 O   0  0  0  0  0  0  0  0  0  0  0  0
    1.8032    4.0213    3.1694 O   0  0  0  0  0  0  0  0  0  0  0  0
    0.5850   -0.0978   -2.3115 O   0  0  0  0  0  0  0  0  0  0  0  0
   10.2036    1.9073    1.5989 O   0  0  0  0  0  0  0  0  0  0  0  0
    5.0183    3.2751    0.6273 O   0  0  0  0  0  0  0  0  0  0  0  0
    6.4845   -4.4484   -0.6282 O   0  0  0  0  0  0  0  0  0  0  0  0
    0.6627    2.7960    0.7957 O   0  0  0  0  0  0  0  0  0  0  0  0
    5.0941   -1.0005   -4.2827 O   0  0  0  0  0  0  0  0  0  0  0  0
    7.3493    3.6410    1.0072 O   0  0  0  0  0  0  0  0  0  0  0  0
    4.3091   -2.5211   -2.6393 O   0  0  0  0  0  0  0  0  0  0  0  0
    8.5859   -2.9752   -0.9906 O   0  0  0  0  0  0  0  0  0  0  0  0
    3.0685    1.4824    0.0320 O   0  0  0  0  0  0  0  0  0  0  0  0
   -0.2479   -2.3048   -0.0465 O   0  0  0  0  0  0  0  0  0  0  0  0
    2.3397    0.5078    5.8984 O   0  0  0  0  0  0  0  0  0  0  0  0
    1.8034    3.6070   -4.4883 O   0  0  0  0  0  0  0  0  0  0  0  0
    8.4917   -2.4033    4.9104 O   0  0  0  0  0  0  0  0  0  0  0  0
    9.2313    1.9792    3.6868 O   0  0  0  0  0  0  0  0  0  0  0  0
    3.8695   -4.3319    3.0923 O   0  0  0  0  0  0  0  0  0  0  0  0
    2.1288   -0.5403   -0.8205 C   0  0  1  0  0  0  0  0  0  0  0  0
    1.9291    0.5244   -4.3337 C   0  0  1  0  0  0  0  0  0  0  0  0
    3.2955    2.1115    3.5712 C   0  0  1  0  0  0  0  0  0  0  0  0
    6.5466    1.3386    0.0022 C   0  0  1  0  0  0  0  0  0  0  0  0
    8.7553   -0.4098    2.5943 C   0  0  1  0  0  0  0  0  0  0  0  0
    5.2562   -2.9950    0.8770 C   0  0  1  0  0  0  0  0  0  0  0  0
    3.0366    0.5844   -2.2151 C   0  0  1  0  0  0  0  0  0  0  0  0
    2.3647    2.8354    2.5524 C   0  0  1  0  0  0  0  0  0  0  0  0
    1.8105   -0.6037   -3.0056 C   0  0  1  0  0  0  0  0  0  0  0  0
    8.8841    1.3349    1.6257 C   0  0  1  0  0  0  0  0  0  0  0  0
    5.2409    2.0270   -0.0123 C   0  0  1  0  0  0  0  0  0  0  0  0
    6.2862   -3.0590   -0.2823 C   0  0  1  0  0  0  0  0  0  0  0  0
    1.3722    0.4980    1.5600 C   0  0  1  0  0  0  0  0  0  0  0  0
    2.7986   -1.7043   -4.4659 C   0  0  1  0  0  0  0  0  0  0  0  0
    5.8593    2.0328    3.0377 C   0  0  1  0  0  0  0  0  0  0  0  0
    5.2109    0.1009   -2.2775 C   0  0  1  0  0  0  0  0  0  0  0  0
    8.2078   -2.6662    1.4195 C   0  0  1  0  0  0  0  0  0  0  0  0
    4.9553   -0.5286    0.8114 C   0  0  1  0  0  0  0  0  0  0  0  0
    1.1626    2.0352    1.9176 C   0  0  2  0  0  0  0  0  0  0  0  0
    7.4934    2.7131    2.0912 C   0  0  2  0  0  0  0  0  0  0  0  0
    4.2710    0.9901    0.5552 C   0  0  2  0  0  0  0  0  0  0  0  0
    3.7063   -1.2361   -2.1993 C   0  0  2  0  0  0  0  0  0  0  0  0
    7.6613   -2.4454   -0.0057 C   0  0  2  0  0  0  0  0  0  0  0  0
    3.7585   -0.4457   -3.9514 C   0  0  2  0  0  0  0  0  0  0  0  0
    1.6795   -2.2482   -1.5499 C   0  0  1  0  0  0  0  0  0  0  0  0
    2.9657    0.5365    3.5248 C   0  0  1  0  0  0  0  0  0  0  0  0
    7.1726   -0.7268    3.6691 C   0  0  1  0  0  0  0  0  0  0  0  0
    6.9324    0.6044    1.7188 C   0  0  1  0  0  0  0  0  0  0  0  0
    6.0028   -3.6106    2.0954 C   0  0  1  0  0  0  0  0  0  0  0  0
    3.4147    1.7653   -4.2350 C   0  0  1  0  0  0  0  0  0  0  0  0
    0.2188   -2.6853   -1.3332 C   0  0  0  0  0  0  0  0  0  0  0  0
    3.0882    3.2602   -3.9984 C   0  0  0  0  0  0  0  0  0  0  0  0
    1.9194    0.1406    4.5933 C   0  0  0  0  0  0  0  0  0  0  0  0
    7.5095   -1.3888    5.0425 C   0  0  0  0  0  0  0  0  0  0  0  0
    5.0986   -3.6613    3.3420 C   0  0  0  0  0  0  0  0  0  0  0  0
    7.8850    1.3218    3.4919 C   0  0  0  0  0  0  0  0  0  0  0  0
    1.7980    1.8303   -1.3099 H   0  0  0  0  0  0  0  0  0  0  0  0
    2.5603    4.5195    3.5361 H   0  0  0  0  0  0  0  0  0  0  0  0
    0.5711    0.8766   -2.3913 H   0  0  0  0  0  0  0  0  0  0  0  0
   10.3933    2.0717    2.5462 H   0  0  0  0  0  0  0  0  0  0  0  0
    5.8398    3.8073    0.5200 H   0  0  0  0  0  0  0  0  0  0  0  0
    7.3235   -4.4825   -1.1347 H   0  0  0  0  0  0  0  0  0  0  0  0
    0.4751    3.6843    1.1601 H   0  0  0  0  0  0  0  0  0  0  0  0
    5.0947   -1.3426   -5.1964 H   0  0  0  0  0  0  0  0  0  0  0  0
    8.2627    3.9320    0.7936 H   0  0  0  0  0  0  0  0  0  0  0  0
    3.5882   -3.1819   -2.7165 H   0  0  0  0  0  0  0  0  0  0  0  0
    8.4780   -2.4409   -1.8005 H   0  0  0  0  0  0  0  0  0  0  0  0
    3.1079    2.4652    0.0441 H   0  0  0  0  0  0  0  0  0  0  0  0
   -0.2139   -1.3240   -0.0392 H   0  0  0  0  0  0  0  0  0  0  0  0
    1.6850    0.1507    6.5249 H   0  0  0  0  0  0  0  0  0  0  0  0
    1.1735    3.3622   -3.7856 H   0  0  0  0  0  0  0  0  0  0  0  0
    8.2145   -2.9761    4.1668 H   0  0  0  0  0  0  0  0  0  0  0  0
    9.3274    2.1618    4.6465 H   0  0  0  0  0  0  0  0  0  0  0  0
    3.2833   -3.6895    2.6489 H   0  0  0  0  0  0  0  0  0  0  0  0
    2.8072   -0.8346   -0.0428 H   0  0  0  0  0  0  0  0  0  0  0  0
    1.0084    1.0714   -4.5595 H   0  0  0  0  0  0  0  0  0  0  0  0
    2.9859    2.4467    4.5680 H   0  0  0  0  0  0  0  0  0  0  0  0
    7.3700    1.9476   -0.3659 H   0  0  0  0  0  0  0  0  0  0  0  0
    9.5931   -0.3601    3.3089 H   0  0  0  0  0  0  0  0  0  0  0  0
    4.4895   -3.7385    0.6177 H   0  0  0  0  0  0  0  0  0  0  0  0
    3.7739    1.1569   -1.7237 H   0  0  0  0  0  0  0  0  0  0  0  0
    2.9676    3.2729    1.7639 H   0  0  0  0  0  0  0  0  0  0  0  0
    1.1222   -1.3328   -3.4688 H   0  0  0  0  0  0  0  0  0  0  0  0
    8.8174    1.0794    0.5619 H   0  0  0  0  0  0  0  0  0  0  0  0
    5.0418    2.3077   -1.0439 H   0  0  0  0  0  0  0  0  0  0  0  0
    5.9122   -2.5931   -1.1823 H   0  0  0  0  0  0  0  0  0  0  0  0
    0.5246   -0.0107    2.0350 H   0  0  0  0  0  0  0  0  0  0  0  0
    3.2486   -2.4215   -5.1589 H   0  0  0  0  0  0  0  0  0  0  0  0
    5.3598    1.6995    2.2166 H   0  0  0  0  0  0  0  0  0  0  0  0
    5.9939   -0.4011   -2.8380 H   0  0  0  0  0  0  0  0  0  0  0  0
    8.8730   -3.5361    1.3657 H   0  0  0  0  0  0  0  0  0  0  0  0
    5.4916   -0.8301   -0.0416 H   0  0  0  0  0  0  0  0  0  0  0  0
    0.3478    2.0646    2.6537 H   0  0  0  0  0  0  0  0  0  0  0  0
    7.9297    3.4211    2.8191 H   0  0  0  0  0  0  0  0  0  0  0  0
    4.0085    1.2315    1.5450 H   0  0  0  0  0  0  0  0  0  0  0  0
    3.8059   -1.5110   -1.1686 H   0  0  0  0  0  0  0  0  0  0  0  0
    7.6504   -1.3851   -0.2185 H   0  0  0  0  0  0  0  0  0  0  0  0
    3.8256    0.0911   -4.8918 H   0  0  0  0  0  0  0  0  0  0  0  0
    2.2891   -2.9502   -0.9603 H   0  0  0  0  0  0  0  0  0  0  0  0
    3.8708   -0.0088    3.7828 H   0  0  0  0  0  0  0  0  0  0  0  0
    6.4954   -1.4337    3.2526 H   0  0  0  0  0  0  0  0  0  0  0  0
    7.5228   -0.1392    1.2106 H   0  0  0  0  0  0  0  0  0  0  0  0
    6.2449   -4.6528    1.8472 H   0  0  0  0  0  0  0  0  0  0  0  0
    3.8152    1.7957   -5.2666 H   0  0  0  0  0  0  0  0  0  0  0  0
   -0.4597   -2.2883   -2.0935 H   0  0  0  0  0  0  0  0  0  0  0  0
    0.1514   -3.7754   -1.4173 H   0  0  0  0  0  0  0  0  0  0  0  0
    3.8263    3.8683   -4.5352 H   0  0  0  0  0  0  0  0  0  0  0  0
    3.1913    3.5676   -2.9522 H   0  0  0  0  0  0  0  0  0  0  0  0
    1.7614   -0.9437    4.5684 H   0  0  0  0  0  0  0  0  0  0  0  0
    0.9521    0.6124    4.3991 H   0  0  0  0  0  0  0  0  0  0  0  0
    6.6018   -1.8267    5.4727 H   0  0  0  0  0  0  0  0  0  0  0  0
    7.8629   -0.6647    5.7828 H   0  0  0  0  0  0  0  0  0  0  0  0
    4.8658   -2.6649    3.7284 H   0  0  0  0  0  0  0  0  0  0  0  0
    5.6181   -4.1911    4.1480 H   0  0  0  0  0  0  0  0  0  0  0  0
    7.3584    2.0674    4.1360 H   0  0  0  0  0  0  0  0  0  0  0  0
    8.0908    0.6828    4.3485 H   0  0  0  0  0  0  0  0  0  0  0  0
  1 43  1  0  0  0  0
  1 31  1  0  0  0  0
  2 32  1  0  0  0  0
  2 44  1  0  0  0  0
  3 33  1  0  0  0  0
  3 45  1  0  0  0  0
  4 34  1  0  0  0  0
  4 46  1  0  0  0  0
  5 35  1  0  0  0  0
  5 47  1  0  0  0  0
  6 36  1  0  0  0  0
  6 48  1  0  0  0  0
  7 43  1  0  0  0  0
  7 56  1  0  0  0  0
  8 44  1  0  0  0  0
  8 55  1  0  0  0  0
  9 45  1  0  0  0  0
  9 57  1  0  0  0  0
 10 46  1  0  0  0  0
 10 60  1  0  0  0  0
 11 47  1  0  0  0  0
 11 59  1  0  0  0  0
 12 48  1  0  0  0  0
 12 58  1  0  0  0  0
 13 67  1  0  0  0  0
 14 68  1  0  0  0  0
 15 69  1  0  0  0  0
 16 70  1  0  0  0  0
 17 71  1  0  0  0  0
 18 72  1  0  0  0  0
 19 73  1  0  0  0  0
 20 74  1  0  0  0  0
 21 75  1  0  0  0  0
 22 76  1  0  0  0  0
 23 77  1  0  0  0  0
 24 78  1  0  0  0  0
 25 61  1  0  0  0  0
 25 79  1  0  0  0  0
 26 63  1  0  0  0  0
 26 80  1  0  0  0  0
 27 62  1  0  0  0  0
 27 81  1  0  0  0  0
 28 64  1  0  0  0  0
 28 82  1  0  0  0  0
 29 66  1  0  0  0  0
 29 83  1  0  0  0  0
 30 65  1  0  0  0  0
 30 84  1  0  0  0  0
 31 37  1  0  0  0  0
 31 55  1  0  0  0  0
 31 85  1  1  0  0  0
 32 39  1  0  0  0  0
 32 60  1  0  0  0  0
 32 86  1  1  0  0  0
 33 38  1  0  0  0  0
 33 56  1  0  0  0  0
 33 87  1  6  0  0  0
 34 41  1  0  0  0  0
 34 58  1  0  0  0  0
 34 88  1  1  0  0  0
 35 40  1  0  0  0  0
 35 57  1  0  0  0  0
 35 89  1  6  0  0  0
 36 42  1  0  0  0  0
 36 59  1  0  0  0  0
 36 90  1  1  0  0  0
 37 54  1  0  0  0  0
 37 13  1  0  0  0  0
 37 91  1  6  0  0  0
 38 49  1  0  0  0  0
 38 14  1  0  0  0  0
 38 92  1  1  0  0  0
 39 52  1  0  0  0  0
 39 15  1  0  0  0  0
 39 93  1  1  0  0  0
 40 50  1  0  0  0  0
 40 16  1  0  0  0  0
 40 94  1  1  0  0  0
 41 51  1  0  0  0  0
 41 17  1  0  0  0  0
 41 95  1  1  0  0  0
 42 53  1  0  0  0  0
 42 18  1  0  0  0  0
 42 96  1  1  0  0  0
 43 49  1  0  0  0  0
 43 97  1  6  0  0  0
 44 54  1  0  0  0  0
 44 98  1  6  0  0  0
 45 50  1  0  0  0  0
 45 99  1  6  0  0  0
 46 52  1  0  0  0  0
 46100  1  6  0  0  0
 47 53  1  0  0  0  0
 47101  1  1  0  0  0
 48 51  1  0  0  0  0
 48102  1  6  0  0  0
 49 19  1  0  0  0  0
 49103  1  6  0  0  0
 50 21  1  0  0  0  0
 50104  1  6  0  0  0
 51 24  1  0  0  0  0
 51105  1  6  0  0  0
 52 22  1  0  0  0  0
 52106  1  6  0  0  0
 53 23  1  0  0  0  0
 53107  1  6  0  0  0
 54 20  1  0  0  0  0
 54108  1  1  0  0  0
 55 61  1  0  0  0  0
 55109  1  6  0  0  0
 56 63  1  0  0  0  0
 56110  1  6  0  0  0
 57 64  1  0  0  0  0
 57111  1  1  0  0  0
 58 66  1  0  0  0  0
 58112  1  1  0  0  0
 59 65  1  0  0  0  0
 59113  1  6  0  0  0
 60 62  1  0  0  0  0
 60114  1  1  0  0  0
 61115  1  0  0  0  0
 61116  1  0  0  0  0
 62117  1  0  0  0  0
 62118  1  0  0  0  0
 63119  1  0  0  0  0
 63120  1  0  0  0  0
 64121  1  0  0  0  0
 64122  1  0  0  0  0
 65123  1  0  0  0  0
 65124  1  0  0  0  0
 66125  1  0  0  0  0
 66126  1  0  0  0  0
M  END
>  <PUBCHEM_COMPOUND_CID>
444913

>  <PUBCHEM_COMPOUND_CANONICALIZED>
1

>  <PUBCHEM_CACTVS_COMPLEXITY>
1250

>  <PUBCHEM_CACTVS_HBOND_ACCEPTOR>
30

>  <PUBCHEM_CACTVS_HBOND_DONOR>
18

>  <PUBCHEM_CACTVS_ROTATABLE_BOND>
6

>  <PUBCHEM_CACTVS_SUBSKEYS>
AAADcfB8PgAAAAAAAAAAAAAAAAAAAAAAAAAkSJEiQAAAAAAAAAAAGgAACAAACBSwgAMACAAABgAAAAAAAAAAAAAAAAAAAAAAAAAREAIAAAAiQAAFAAAHAAHAYAwAAAAAAAAAAAAAAAAAAAAAAAAAAAAAAA==

>  <PUBCHEM_IUPAC_OPENEYE_NAME>
(1S,3R,5R,6S,8R,10R,11S,13R,15R,16S,18R,20R,21S,23R,25R,26S,28R,30R,31R,32R,33R,34R,35R,36R,37R,38R,39R,40R,41R,42R)-5,10,15,20,25,30-hexakis(hydroxymethyl)-2,4,7,9,12,14,17,19,22,24,27,29-dodecaoxaheptacyclo[26.2.2.23,6.28,11.213,16.218,21.223,26]dotetracontane-31,32,33,34,35,36,37,38,39,40,41,42-dodecol

>  <PUBCHEM_IUPAC_CAS_NAME>
(1S,3R,5R,6S,8R,10R,11S,13R,15R,16S,18R,20R,21S,23R,25R,26S,28R,30R,31R,32R,33R,34R,35R,36R,37R,38R,39R,40R,41R,42R)-5,10,15,20,25,30-hexakis(hydroxymethyl)-2,4,7,9,12,14,17,19,22,24,27,29-dodecaoxaheptacyclo[26.2.2.23,6.28,11.213,16.218,21.223,26]dotetracontane-31,32,33,34,35,36,37,38,39,40,41,42-dodecol

>  <PUBCHEM_IUPAC_NAME_MARKUP>
(1<I>S</I>,3<I>R</I>,5<I>R</I>,6<I>S</I>,8<I>R</I>,10<I>R</I>,11<I>S</I>,13<I>R</I>,15<I>R</I>,16<I>S</I>,18<I>R</I>,20<I>R</I>,21<I>S</I>,23<I>R</I>,25<I>R</I>,26<I>S</I>,28<I>R</I>,30<I>R</I>,31<I>R</I>,32<I>R</I>,33<I>R</I>,34<I>R</I>,35<I>R</I>,36<I>R</I>,37<I>R</I>,38<I>R</I>,39<I>R</I>,40<I>R</I>,41<I>R</I>,42<I>R</I>)-5,10,15,20,25,30-hexakis(hydroxymethyl)-2,4,7,9,12,14,17,19,22,24,27,29-dodecaoxaheptacyclo[26.2.2.2<SUP>3,6</SUP>.2<SUP>8,11</SUP>.2<SUP>13,16</SUP>.2<SUP>18,21</SUP>.2<SUP>23,26</SUP>]dotetracontane-31,32,33,34,35,36,37,38,39,40,41,42-dodecol

>  <PUBCHEM_IUPAC_NAME>
(1S,3R,5R,6S,8R,10R,11S,13R,15R,16S,18R,20R,21S,23R,25R,26S,28R,30R,31R,32R,33R,34R,35R,36R,37R,38R,39R,40R,41R,42R)-5,10,15,20,25,30-hexakis(hydroxymethyl)-2,4,7,9,12,14,17,19,22,24,27,29-dodecaoxaheptacyclo[26.2.2.23,6.28,11.213,16.218,21.223,26]dotetracontane-31,32,33,34,35,36,37,38,39,40,41,42-dodecol

>  <PUBCHEM_IUPAC_SYSTEMATIC_NAME>
(1S,3R,5R,6S,8R,10R,11S,13R,15R,16S,18R,20R,21S,23R,25R,26S,28R,30R,31R,32R,33R,34R,35R,36R,37R,38R,39R,40R,41R,42R)-5,10,15,20,25,30-hexakis(hydroxymethyl)-2,4,7,9,12,14,17,19,22,24,27,29-dodecaoxaheptacyclo[26.2.2.23,6.28,11.213,16.218,21.223,26]dotetracontane-31,32,33,34,35,36,37,38,39,40,41,42-dodecol

>  <PUBCHEM_IUPAC_TRADITIONAL_NAME>
(1S,3R,5R,6S,8R,10R,11S,13R,15R,16S,18R,20R,21S,23R,25R,26S,28R,30R,31R,32R,33R,34R,35R,36R,37R,38R,39R,40R,41R,42R)-5,10,15,20,25,30-hexamethylol-2,4,7,9,12,14,17,19,22,24,27,29-dodecaoxaheptacyclo[26.2.2.23,6.28,11.213,16.218,21.223,26]dotetracontane-31,32,33,34,35,36,37,38,39,40,41,42-dodecol

>  <PUBCHEM_IUPAC_INCHI>
InChI=1S/C36H60O30/c37-1-7-25-13(43)19(49)31(55-7)62-26-8(2-38)57-33(21(51)15(26)45)64-28-10(4-40)59-35(23(53)17(28)47)66-30-12(6-42)60-36(24(54)18(30)48)65-29-11(5-41)58-34(22(52)16(29)46)63-27-9(3-39)56-32(61-25)20(50)14(27)44/h7-54H,1-6H2/t7-,8-,9-,10-,11-,12-,13-,14-,15-,16-,17-,18-,19-,20-,21-,22-,23-,24-,25-,26-,27-,28-,29-,30-,31-,32-,33-,34-,35-,36-/m1/s1

>  <PUBCHEM_IUPAC_INCHIKEY>
HFHDHCJBZVLPGP-RWMJIURBSA-N

>  <PUBCHEM_XLOGP3_AA>
-12.9

>  <PUBCHEM_EXACT_MASS>
972.316941

>  <PUBCHEM_MOLECULAR_FORMULA>
C36H60O30

>  <PUBCHEM_MOLECULAR_WEIGHT>
972.8

>  <PUBCHEM_OPENEYE_CAN_SMILES>
C(C1C2C(C(C(O1)OC3C(OC(C(C3O)O)OC4C(OC(C(C4O)O)OC5C(OC(C(C5O)O)OC6C(OC(C(C6O)O)OC7C(OC(O2)C(C7O)O)CO)CO)CO)CO)CO)O)O)O

>  <PUBCHEM_OPENEYE_ISO_SMILES>
C([C@@H]1[C@@H]2[C@@H]([C@H]([C@H](O1)O[C@@H]3[C@H](O[C@@H]([C@@H]([C@H]3O)O)O[C@@H]4[C@H](O[C@@H]([C@@H]([C@H]4O)O)O[C@@H]5[C@H](O[C@@H]([C@@H]([C@H]5O)O)O[C@@H]6[C@H](O[C@@H]([C@@H]([C@H]6O)O)O[C@@H]7[C@H](O[C@H](O2)[C@@H]([C@H]7O)O)CO)CO)CO)CO)CO)O)O)O

>  <PUBCHEM_CACTVS_TPSA>
475

>  <PUBCHEM_MONOISOTOPIC_WEIGHT>
972.316941

>  <PUBCHEM_TOTAL_CHARGE>
0

>  <PUBCHEM_HEAVY_ATOM_COUNT>
66

>  <PUBCHEM_ATOM_DEF_STEREO_COUNT>
30

>  <PUBCHEM_ATOM_UDEF_STEREO_COUNT>
0

>  <PUBCHEM_BOND_DEF_STEREO_COUNT>
0

>  <PUBCHEM_BOND_UDEF_STEREO_COUNT>
0

>  <PUBCHEM_ISOTOPIC_ATOM_COUNT>
0

>  <PUBCHEM_COMPONENT_COUNT>
1

>  <PUBCHEM_CACTVS_TAUTO_COUNT>
-1

>  <PUBCHEM_COORDINATE_TYPE>
1
5
255

>  <PUBCHEM_BONDANNOTATIONS>
37  13  5
38  14  5
39  15  5
40  16  5
41  17  5
42  18  5
49  19  6
54  20  6
50  21  6
52  22  6
53  23  6
51  24  6
31  67  5
32  68  5
33  69  5
34  70  5
35  71  5
36  72  5
43  79  5
44  80  5
45  81  5
46  82  5
47  83  5
48  84  5
55  61  5
56  63  5
57  64  5
58  66  5
59  65  5
60  62  5

$$$$
